
                                 *****************
                                 * O   R   C   A *
                                 *****************

                                            #,                                       
                                            ###                                      
                                            ####                                     
                                            #####                                    
                                            ######                                   
                                           ########,                                 
                                     ,,################,,,,,                         
                               ,,#################################,,                 
                          ,,##########################################,,             
                       ,#########################################, ''#####,          
                    ,#############################################,,   '####,        
                  ,##################################################,,,,####,       
                ,###########''''           ''''###############################       
              ,#####''   ,,,,##########,,,,          '''####'''          '####       
            ,##' ,,,,###########################,,,                        '##       
           ' ,,###''''                  '''############,,,                           
         ,,##''                                '''############,,,,        ,,,,,,###''
      ,#''                                            '''#######################'''  
     '                                                          ''''####''''         
             ,#######,   #######,   ,#######,      ##                                
            ,#'     '#,  ##    ##  ,#'     '#,    #''#        ######   ,####,        
            ##       ##  ##   ,#'  ##            #'  '#       #        #'  '#        
            ##       ##  #######   ##           ,######,      #####,   #    #        
            '#,     ,#'  ##    ##  '#,     ,#' ,#      #,         ##   #,  ,#        
             '#######'   ##     ##  '#######'  #'      '#     #####' # '####'        



                  #######################################################
                  #                        -***-                        #
                  #          Department of theory and spectroscopy      #
                  #    Directorship and core code : Frank Neese         #
                  #        Max Planck Institute fuer Kohlenforschung    #
                  #                Kaiser Wilhelm Platz 1               #
                  #                 D-45470 Muelheim/Ruhr               #
                  #                      Germany                        #
                  #                                                     #
                  #                  All rights reserved                #
                  #                        -***-                        #
                  #######################################################



                         Program Version 5.0.4 -  RELEASE  -

 With contributions from (in alphabetic order):
   Daniel Aravena         : Magnetic Suceptibility
   Michael Atanasov       : Ab Initio Ligand Field Theory (pilot matlab implementation)
   Alexander A. Auer      : GIAO ZORA, VPT2 properties, NMR spectrum
   Ute Becker             : Parallelization
   Giovanni Bistoni       : ED, misc. LED, open-shell LED, HFLD
   Martin Brehm           : Molecular dynamics
   Dmytro Bykov           : SCF Hessian
   Vijay G. Chilkuri      : MRCI spin determinant printing, contributions to CSF-ICE
   Dipayan Datta          : RHF DLPNO-CCSD density
   Achintya Kumar Dutta   : EOM-CC, STEOM-CC
   Dmitry Ganyushin       : Spin-Orbit,Spin-Spin,Magnetic field MRCI
   Miquel Garcia          : C-PCM and meta-GGA Hessian, CC/C-PCM, Gaussian charge scheme
   Yang Guo               : DLPNO-NEVPT2, F12-NEVPT2, CIM, IAO-localization
   Andreas Hansen         : Spin unrestricted coupled pair/coupled cluster methods
   Benjamin Helmich-Paris : MC-RPA, TRAH-SCF, COSX integrals
   Lee Huntington         : MR-EOM, pCC
   Robert Izsak           : Overlap fitted RIJCOSX, COSX-SCS-MP3, EOM
   Marcus Kettner         : VPT2
   Christian Kollmar      : KDIIS, OOCD, Brueckner-CCSD(T), CCSD density, CASPT2, CASPT2-K
   Simone Kossmann        : Meta GGA functionals, TD-DFT gradient, OOMP2, MP2 Hessian
   Martin Krupicka        : Initial AUTO-CI
   Lucas Lang             : DCDCAS
   Marvin Lechner         : AUTO-CI (C++ implementation), FIC-MRCC
   Dagmar Lenk            : GEPOL surface, SMD
   Dimitrios Liakos       : Extrapolation schemes; Compound Job, initial MDCI parallelization
   Dimitrios Manganas     : Further ROCIS development; embedding schemes
   Dimitrios Pantazis     : SARC Basis sets
   Anastasios Papadopoulos: AUTO-CI, single reference methods and gradients
   Taras Petrenko         : DFT Hessian,TD-DFT gradient, ASA, ECA, R-Raman, ABS, FL, XAS/XES, NRVS
   Peter Pinski           : DLPNO-MP2, DLPNO-MP2 Gradient
   Christoph Reimann      : Effective Core Potentials
   Marius Retegan         : Local ZFS, SOC
   Christoph Riplinger    : Optimizer, TS searches, QM/MM, DLPNO-CCSD(T), (RO)-DLPNO pert. Triples
   Tobias Risthaus        : Range-separated hybrids, TD-DFT gradient, RPA, STAB
   Michael Roemelt        : Original ROCIS implementation
   Masaaki Saitow         : Open-shell DLPNO-CCSD energy and density
   Barbara Sandhoefer     : DKH picture change effects
   Avijit Sen             : IP-ROCIS
   Kantharuban Sivalingam : CASSCF convergence, NEVPT2, FIC-MRCI
   Bernardo de Souza      : ESD, SOC TD-DFT
   Georgi Stoychev        : AutoAux, RI-MP2 NMR, DLPNO-MP2 response
   Willem Van den Heuvel  : Paramagnetic NMR
   Boris Wezisla          : Elementary symmetry handling
   Frank Wennmohs         : Technical directorship


 We gratefully acknowledge several colleagues who have allowed us to
 interface, adapt or use parts of their codes:
   Stefan Grimme, W. Hujo, H. Kruse, P. Pracht,  : VdW corrections, initial TS optimization,
                  C. Bannwarth, S. Ehlert          DFT functionals, gCP, sTDA/sTD-DF
   Ed Valeev, F. Pavosevic, A. Kumar             : LibInt (2-el integral package), F12 methods
   Garnet Chan, S. Sharma, J. Yang, R. Olivares  : DMRG
   Ulf Ekstrom                                   : XCFun DFT Library
   Mihaly Kallay                                 : mrcc  (arbitrary order and MRCC methods)
   Jiri Pittner, Ondrej Demel                    : Mk-CCSD
   Frank Weinhold                                : gennbo (NPA and NBO analysis)
   Christopher J. Cramer and Donald G. Truhlar   : smd solvation model
   Lars Goerigk                                  : TD-DFT with DH, B97 family of functionals
   V. Asgeirsson, H. Jonsson                     : NEB implementation
   FAccTs GmbH                                   : IRC, NEB, NEB-TS, DLPNO-Multilevel, CI-OPT
                                                   MM, QMMM, 2- and 3-layer-ONIOM, Crystal-QMMM,
                                                   LR-CPCM, SF, NACMEs, symmetry and pop. for TD-DFT,
                                                   nearIR, NL-DFT gradient (VV10), updates on ESD,
                                                   ML-optimized integration grids
   S Lehtola, MJT Oliveira, MAL Marques          : LibXC Library
   Liviu Ungur et al                             : ANISO software


 Your calculation uses the libint2 library for the computation of 2-el integrals
 For citations please refer to: http://libint.valeyev.net

 Your ORCA version has been built with support for libXC version: 5.1.0
 For citations please refer to: https://tddft.org/programs/libxc/

 This ORCA versions uses:
   CBLAS   interface :  Fast vector & matrix operations
   LAPACKE interface :  Fast linear algebra routines
   Shared memory     :  Shared parallel matrices


SCAN-COORDS
================================================================================

----- Orbital basis set information -----
Your calculation utilizes the basis: def2-SVP
   F. Weigend and R. Ahlrichs, Phys. Chem. Chem. Phys. 7, 3297 (2005).

The basis set includes atom-specific modifications.

================================================================================
                                        WARNINGS
                       Please study these warnings very carefully!
================================================================================

WARNING: Old DensityContainer found on disk!
         Will remove this file - 
         If you want to keep old densities, please start your calculation with a different basename. 


INFO   : the flag for use of the SHARK integral package has been found!

================================================================================
                                       INPUT FILE
================================================================================
NAME = feo_5_casscf_6_6.inp
|  1> %pal nprocs 12 end
|  2> %maxcore 3000
|  3> ! TightSCF miniprint nopop
|  4> %casscf
|  5>  nel 6
|  6>  norb 6
|  7>    mult 5,3
|  8>   rel 
|  9>   dosoc true
| 10>   PrintLevel 3
| 11>   end
| 12>  maxiter 150
| 13>  CI
| 14>   MaxIter 200
| 15>  end
| 16> end
| 17> %method
| 18>  FrozenCore FC_NONE
| 19> end
| 20> %scf
| 21>  Thresh 1e-12
| 22>  Tcut 1e-14
| 23> end
| 24> %coords
| 25>  Units = angs
| 26>  Charge = 0
| 27>  Mult = 5
| 28>  Coords
| 29>  O(1)       0.00000000       0.00000000      -1.22327000
| 30>   NewGTO
| 31>     S   6
| 32>     1   2.70323826E+04   5.72273352E-04
| 33>     2   4.05238714E+03   4.43532335E-03
| 34>     3   9.22327227E+02   2.30201077E-02
| 35>     4   2.61240710E+02   9.28224907E-02
| 36>     5   8.53546414E+01   2.93785000E-01
| 37>     6   3.10350352E+01   6.74016045E-01
| 38>     S   2
| 39>     1   1.22608607E+01   6.38399370E-01
| 40>     2   4.99870760E+00   3.95345871E-01
| 41>     S   1
| 42>     1   1.17031082E+00   1.00000000E+00
| 43>     S   1
| 44>     1   4.64747410E-01   1.00000000E+00
| 45>     S   1
| 46>     1   1.85045364E-01   1.00000000E+00
| 47>     P   4
| 48>     1   6.32749548E+01   1.20183322E-02
| 49>     2   1.46270494E+01   8.30054218E-02
| 50>     3   4.45012235E+00   3.19917439E-01
| 51>     4   1.52757996E+00   7.07155429E-01
| 52>     P   1
| 53>     1   5.29351179E-01   1.00000000E+00
| 54>     P   1
| 55>     1   1.74784213E-01   1.00000000E+00
| 56>     D   1
| 57>     1   2.31400000E+00   1.00000000E+00
| 58>     D   1
| 59>     1   6.45000000E-01   1.00000000E+00
| 60>     F   1
| 61>     1   1.42800000E+00   1.00000000E+00
| 62>   end
| 63>  Fe(2)       0.00000000       0.00000000       0.37639100
| 64>   NewGTO
| 65>     S   8
| 66>     1   3.00784846E+05   2.41033050E-04
| 67>     2   4.50889706E+04   1.86873825E-03
| 68>     3   1.02625163E+04   9.71551346E-03
| 69>     4   2.90528973E+03   3.94799670E-02
| 70>     5   9.46114871E+02   1.28421628E-01
| 71>     6   3.39878329E+02   3.04578608E-01
| 72>     7   1.31944256E+02   4.34655538E-01
| 73>     8   5.21114941E+01   2.27423824E-01
| 74>     S   4
| 75>     1   3.29488393E+02  -2.47166458E-02
| 76>     2   1.01923327E+02  -1.16695998E-01
| 77>     3   1.62404627E+01   5.52297794E-01
| 78>     4   6.88406758E+00   5.35397520E-01
| 79>     S   2
| 80>     1   1.04706938E+01  -3.77458698E-01
| 81>     2   1.73600396E+00   1.17226229E+00
| 82>     S   1
| 83>     1   7.25772890E-01   1.00000000E+00
| 84>     S   1
| 85>     1   1.15955282E-01   1.00000000E+00
| 86>     S   1
| 87>     1   4.19682277E-02   1.00000000E+00
| 88>     P   6
| 89>     1   1.58539600E+03   2.73956418E-03
| 90>     2   3.75380065E+02   2.21674966E-02
| 91>     3   1.20318165E+02   1.03648403E-01
| 92>     4   4.47887490E+01   2.97032307E-01
| 93>     5   1.78292786E+01   4.77733744E-01
| 94>     6   7.22471538E+00   2.78717499E-01
| 95>     P   3
| 96>     1   2.81432198E+01  -2.02687424E-02
| 97>     2   3.87432414E+00   3.86033815E-01
| 98>     3   1.54107523E+00   6.75382473E-01
| 99>     P   1
|100>     1   5.82856153E-01   1.00000000E+00
|101>     D   4
|102>     1   6.19966750E+01   1.94973340E-02
|103>     2   1.78737326E+01   1.19228681E-01
|104>     3   6.27447829E+00   3.76252748E-01
|105>     4   2.35523372E+00   6.49978431E-01
|106>     D   1
|107>     1   8.54322399E-01   1.00000000E+00
|108>     D   1
|109>     1   2.78692544E-01   1.00000000E+00
|110>     P   1
|111>     1   1.34915000E-01   1.00000000E+00
|112>     D   1
|113>     1   9.10000000E-02   1.00000000E+00
|114>     F   1
|115>     1   1.59800000E+00   1.00000000E+00
|116>   end
|117>  end
|118> end
|119> 
|120> 
|121>                          ****END OF INPUT****
================================================================================

                       ****************************
                       * Single Point Calculation *
                       ****************************

---------------------------------
CARTESIAN COORDINATES (ANGSTROEM)
---------------------------------
  O      0.000000    0.000000   -1.223270
  Fe     0.000000    0.000000    0.376391

----------------------------
CARTESIAN COORDINATES (A.U.)
----------------------------
  NO LB      ZA    FRAG     MASS         X           Y           Z
   0 O     8.0000    1    15.999    0.000000    0.000000   -2.311645
   1 Fe   26.0000    2    55.850    0.000000    0.000000    0.711276

----------------------------------------------
CARTESIAN COORDINATES OF FRAGMENTS (ANGSTROEM)
----------------------------------------------

 FRAGMENT 1 
  O     0.000000    0.000000   -1.223270

 FRAGMENT 2 
  Fe    0.000000    0.000000    0.376391



           ************************************************************
           *        Program running with 12 parallel MPI-processes    *
           *              working on a common directory               *
           ************************************************************
------------------------------------------------------------------------------
                   ___                                                        
                  /   \      - P O W E R E D   B Y -                         
                 /     \                                                     
                 |  |  |   _    _      __       _____    __    __             
                 |  |  |  | |  | |    /  \     |  _  \  |  |  /  |          
                  \  \/   | |  | |   /    \    | | | |  |  | /  /          
                 / \  \   | |__| |  /  /\  \   | |_| |  |  |/  /          
                |  |  |   |  __  | /  /__\  \  |    /   |      \           
                |  |  |   | |  | | |   __   |  |    \   |  |\   \          
                \     /   | |  | | |  |  |  |  | |\  \  |  | \   \       
                 \___/    |_|  |_| |__|  |__|  |_| \__\ |__|  \__/        
                                                                              
                      - O R C A' S   B I G   F R I E N D -                    
                                      &                                       
                       - I N T E G R A L  F E E D E R -                       
                                                                              
 v1 FN, 2020, v2 2021                                                         
------------------------------------------------------------------------------


Reading SHARK input file feo_5_casscf_6_6.SHARKINP.tmp ... ok
----------------------
SHARK INTEGRAL PACKAGE
----------------------

Number of atoms                             ...      2
Number of basis functions                   ...     76
Number of shells                            ...     26
Maximum angular momentum                    ...      3
Integral batch strategy                     ... SHARK/LIBINT Hybrid
RI-J (if used) integral strategy            ... SPLIT-RIJ (Revised 2003 algorithm where possible)
Printlevel                                  ...      1
Contraction scheme used                     ... SEGMENTED contraction
Coulomb Range Separation                    ... NOT USED
Exchange Range Separation                   ... NOT USED
Finite Nucleus Model                        ... NOT USED
Auxiliary Coulomb fitting basis             ... NOT available
Auxiliary J/K fitting basis                 ... NOT available
Auxiliary Correlation fitting basis         ... NOT available
Auxiliary 'external' fitting basis          ... NOT available
Integral threshold                          ...     1.000000e-12
Primitive cut-off                           ...     1.000000e-14
Primitive pair pre-selection threshold      ...     1.000000e-14

Calculating pre-screening integrals         ... done (  0.1 sec) Dimension = 26
Organizing shell pair data                  ... done (  0.1 sec)
Shell pair information
Total number of shell pairs                 ...       351
Shell pairs after pre-screening             ...       347
Total number of primitive shell pairs       ...      1677
Primitive shell pairs kept                  ...      1443
          la=0 lb=0:     63 shell pairs
          la=1 lb=0:     76 shell pairs
          la=1 lb=1:     28 shell pairs
          la=2 lb=0:     66 shell pairs
          la=2 lb=1:     42 shell pairs
          la=2 lb=2:     21 shell pairs
          la=3 lb=0:     22 shell pairs
          la=3 lb=1:     14 shell pairs
          la=3 lb=2:     12 shell pairs
          la=3 lb=3:      3 shell pairs

Calculating one electron integrals          ... done (  0.0 sec)
Calculating Nuclear repulsion               ... done (  0.0 sec) ENN=     68.807615692575 Eh

SHARK setup successfully completed in   0.4 seconds

Maximum memory used throughout the entire GTOINT-calculation: 16.3 MB


           ************************************************************
           *        Program running with 12 parallel MPI-processes    *
           *              working on a common directory               *
           ************************************************************

Diagonalization of the overlap matrix:
Smallest eigenvalue                        ... 3.277e-03
Time for diagonalization                   ...    0.010 sec
Threshold for overlap eigenvalues          ... 1.000e-08
Number of eigenvalues below threshold      ... 0
Time for construction of square roots      ...    0.063 sec
Total time needed                          ...    0.108 sec

Atom 0: N(Shells)= 11 and 6 - projection required
CASSCF - fitting 2 shells:
   closed-shell contains  14 orbitals (  0 ...  13)
   active space contains   6 orbitals ( 14 ...  19)
Canonicalizing active space vectors CAS(6,6) {14-19} C(76,76) Cact Ract BOVL(45,76) COVL Diag BackTrafo Restore
Active space vectors have been canonicalized


 ... the calculation is a CASSCF calculation -I'm leaving here GOOD LUCK!!!



           ************************************************************
           *        Program running with 12 parallel MPI-processes    *
           *              working on a common directory               *
           ************************************************************
-------------------------------------------------------------------------------
                              ORCA-CASSCF
-------------------------------------------------------------------------------

Setting up the integral package       ... done
Building the CAS space                ... done (31 configurations for Mult=5)
Building the CAS space                ... done (121 configurations for Mult=3)

SYSTEM-SPECIFIC SETTINGS:
Number of active electrons          ...    6
Number of active orbitals           ...    6
Total number of electrons           ...   34
Total number of orbitals            ...   76

Determined orbital ranges:
   Internal       0 -   13 (  14 orbitals)
   Active        14 -   19 (   6 orbitals)
   External      20 -   75 (  56 orbitals)
Number of rotation parameters      ...   1204

CI-STEP:
CI strategy                         ... General CI
Number of multiplicity blocks       ...    2
BLOCK  1 WEIGHT=   0.5000
  Multiplicity                      ...    5
  #(Configurations)                 ...   31
  #(CSFs)                           ...   35
  #(Roots)                          ...    1
    ROOT=0 WEIGHT=    0.500000

BLOCK  2 WEIGHT=   0.5000
  Multiplicity                      ...    3
  #(Configurations)                 ...  121
  #(CSFs)                           ...  189
  #(Roots)                          ...    1
    ROOT=0 WEIGHT=    0.500000

  PrintLevel                        ...    1
  N(GuessMat)                       ...       512
  MaxDim(CI)                        ...        10
  MaxIter(CI)                       ...       200
  Energy Tolerance CI               ...  2.50e-09
  Residual Tolerance CI             ...  2.50e-09
  Shift(CI)                         ...  1.00e-04

INTEGRAL-TRANSFORMATION-STEP:
  Algorithm                         ... EXACT

ORBITAL-IMPROVEMENT-STEP:
  Algorithm                         ... SuperCI(PT)
  Default Parametrization           ... CAYLEY
  Act-Act rotations                 ... depends on algorithm used

  Note: SuperCI(PT) will ignore FreezeIE, FreezeAct and FreezeGrad. In general Default settings are encouraged.
        In conjunction with ShiftUp, ShiftDn or GradScaling the performance of SuperCI(PT) is less optimal.  

  MaxRot                            ... 2.00e-01 
  Max. no of vectors (DIIS)         ... 15
  DThresh (cut-off) metric          ... 1.00e-06
  Switch step at gradient           ...  3.00e-02 
  Switch step at iteration          ...        50   
  Switch step to                    ... SuperCI(PT)    

SCF-SETTINGS:
  Incremental                       ... on
  RIJCOSX approximation             ... off
  RI-JK approximation               ... off
  AO integral handling              ... DIRECT
  Integral Neglect Thresh           ...  1.00e-12
  Primitive cutoff TCut             ...  1.00e-14
  Energy convergence tolerance      ...  2.50e-08
  Orbital gradient convergence      ...  2.50e-04
  Max. number of iterations         ...       150  


PROPERTIES-SETTINGS:
  Spin orbit coupling               ... true

FINAL ORBITALS:
  Active   Orbitals                 ... natural 
  Internal Orbitals                 ... canonical 
  External Orbitals                 ... canonical 

------------------
CAS-SCF ITERATIONS
------------------


MACRO-ITERATION   1: 
   --- Inactive Energy E0 = -1325.67677617 Eh
CI-ITERATION   0: 
 -1337.207140050   0.000000000000 (    0.01)
   CI-PROBLEM SOLVED
   DENSITIES MADE
CI-ITERATION   0: 
 -1337.168994496   0.000000000000 (    0.00)
   CI-PROBLEM SOLVED
   DENSITIES MADE

                 <<<<<<<<<<<<<<<<<<INITIAL CI STATE CHECK>>>>>>>>>>>>>>>>>>

BLOCK  1 MULT= 5 NROOTS= 1 
ROOT   0:  E=   -1337.2071400496 Eh
      0.73969 [     0]: 211110
      0.11840 [    30]: 011112
      0.11380 [    15]: 111111
      0.01361 [    29]: 011121
      0.01158 [    14]: 111120

BLOCK  2 MULT= 3 NROOTS= 1 
ROOT   0:  E=   -1337.1689944957 Eh
      0.72036 [    10]: 211110
      0.11881 [   110]: 011112
      0.07290 [    60]: 111111
      0.02215 [   109]: 011121
      0.01939 [    59]: 111120
      0.01340 [    11]: 211101
      0.01148 [    27]: 201120
      0.01056 [     0]: 221100
      0.00359 [    61]: 111102

                 <<<<<<<<<<<<<<<<<<INITIAL CI STATE CHECK>>>>>>>>>>>>>>>>>>

   E(CAS)= -1337.188067273 Eh DE=    0.000000e+00
   --- Energy gap subspaces: Ext-Act = 5.324   Act-Int = 0.086
   N(occ)=  1.60999 0.99972 1.00000 1.00000 1.02446 0.36582
   ||g|| =     4.159337e+00 Max(G)=    2.363817e+00 Rot=53,10
   --- Orbital Update [SuperCI(PT)]
   --- Canonicalize Internal Space
   --- Canonicalize External Space
   --- SX_PT (Skipped TA=0 IT=0): ||X|| =      0.082852824 Max(X)(24,11) =      0.032320171 
   --- SFit(Active Orbitals)

MACRO-ITERATION   2: 
   --- Inactive Energy E0 = -1325.69805340 Eh
CI-ITERATION   0: 
 -1337.264469615   0.000000000000 (    0.03)
   CI-PROBLEM SOLVED
   DENSITIES MADE
CI-ITERATION   0: 
 -1337.226890444   0.000000000000 (    0.01)
   CI-PROBLEM SOLVED
   DENSITIES MADE
   E(CAS)= -1337.245680030 Eh DE=   -5.761276e-02
   --- Energy gap subspaces: Ext-Act = 5.320   Act-Int = 0.080
   N(occ)=  1.61867 0.99973 1.00000 1.00000 1.02455 0.35706
   ||g|| =     1.200963e-01 Max(G)=    4.274285e-02 Rot=53,10
   --- Orbital Update [SuperCI(PT)]
   --- Canonicalize Internal Space
   --- Canonicalize External Space
   --- SX_PT (Skipped TA=0 IT=0): ||X|| =      0.017909398 Max(X)(24,11) =      0.007892044 
   --- SFit(Active Orbitals)

MACRO-ITERATION   3: 
   --- Inactive Energy E0 = -1325.69380319 Eh
CI-ITERATION   0: 
 -1337.265179121   0.000000000000 (    0.01)
   CI-PROBLEM SOLVED
   DENSITIES MADE
CI-ITERATION   0: 
 -1337.227687496   0.000000000000 (    0.02)
   CI-PROBLEM SOLVED
   DENSITIES MADE
   E(CAS)= -1337.246433308 Eh DE=   -7.532789e-04
   --- Energy gap subspaces: Ext-Act = 5.314   Act-Int = 0.080
   N(occ)=  1.62400 0.99973 1.00000 1.00000 1.02443 0.35184
   ||g|| =     3.184308e-02 Max(G)=    1.058117e-02 Rot=64,11
   --- Orbital Update [SuperCI(PT)]
   --- Canonicalize Internal Space
   --- Canonicalize External Space
   --- SX_PT (Skipped TA=0 IT=0): ||X|| =      0.005754983 Max(X)(14,10) =      0.002191071 
   --- SFit(Active Orbitals)

MACRO-ITERATION   4: 
   --- Inactive Energy E0 = -1325.67786170 Eh
CI-ITERATION   0: 
 -1337.265246752   0.000000000000 (    0.01)
   CI-PROBLEM SOLVED
   DENSITIES MADE
CI-ITERATION   0: 
 -1337.227721637   0.000000000000 (    0.09)
   CI-PROBLEM SOLVED
   DENSITIES MADE
   E(CAS)= -1337.246484194 Eh DE=   -5.088597e-05
   --- Energy gap subspaces: Ext-Act = 5.314   Act-Int = 0.078
   N(occ)=  1.62526 0.99973 1.00000 1.00000 1.02474 0.35027
   ||g|| =     1.358342e-02 Max(G)=    3.174211e-03 Rot=19,10
   --- Orbital Update [SuperCI(PT)]
   --- Canonicalize Internal Space
   --- Canonicalize External Space
   --- SX_PT (Skipped TA=0 IT=0): ||X|| =      0.003323934 Max(X)(23,18) =     -0.001373659 
   --- SFit(Active Orbitals)

MACRO-ITERATION   5: 
   --- Inactive Energy E0 = -1325.67924922 Eh
CI-ITERATION   0: 
 -1337.265265802   0.000000000000 (    0.08)
   CI-PROBLEM SOLVED
   DENSITIES MADE
CI-ITERATION   0: 
 -1337.227731528   0.000000000000 (    0.04)
   CI-PROBLEM SOLVED
   DENSITIES MADE
   E(CAS)= -1337.246498665 Eh DE=   -1.447067e-05
   --- Energy gap subspaces: Ext-Act = 5.313   Act-Int = 0.078
   N(occ)=  1.62643 0.99973 1.00000 1.00000 1.02478 0.34906
   ||g|| =     4.226595e-03 Max(G)=    1.480542e-03 Rot=19,10
   --- Orbital Update [SuperCI(PT)]
   --- Canonicalize Internal Space
   --- Canonicalize External Space
   --- SX_PT (Skipped TA=0 IT=0): ||X|| =      0.001509233 Max(X)(14,10) =     -0.000805535 
   --- SFit(Active Orbitals)

MACRO-ITERATION   6: 
   --- Inactive Energy E0 = -1325.67570042 Eh
CI-ITERATION   0: 
 -1337.265289182   0.000000000000 (    0.00)
   CI-PROBLEM SOLVED
   DENSITIES MADE
CI-ITERATION   0: 
 -1337.227715835   0.000000000000 (    0.01)
   CI-PROBLEM SOLVED
   DENSITIES MADE
   E(CAS)= -1337.246502509 Eh DE=   -3.843488e-06
   --- Energy gap subspaces: Ext-Act = 5.312   Act-Int = 0.077
   N(occ)=  1.62728 0.99974 1.00000 1.00000 1.02487 0.34812
   ||g|| =     1.986803e-03 Max(G)=   -4.635191e-04 Rot=66,13
   --- Orbital Update [SuperCI(PT)]
   --- Canonicalize Internal Space
   --- Canonicalize External Space
   --- SX_PT (Skipped TA=0 IT=0): ||X|| =      0.000652017 Max(X)(23,18) =     -0.000327528 
   --- SFit(Active Orbitals)

MACRO-ITERATION   7: 
   --- Inactive Energy E0 = -1325.67572231 Eh
CI-ITERATION   0: 
 -1337.265296881   0.000000000000 (    0.12)
   CI-PROBLEM SOLVED
   DENSITIES MADE
CI-ITERATION   0: 
 -1337.227709558   0.000000000000 (    0.04)
   CI-PROBLEM SOLVED
   DENSITIES MADE
   E(CAS)= -1337.246503219 Eh DE=   -7.104636e-07
   --- Energy gap subspaces: Ext-Act = 5.312   Act-Int = 0.077
   N(occ)=  1.62760 0.99974 1.00000 1.00000 1.02491 0.34775
   ||g|| =     9.917751e-04 Max(G)=    3.203545e-04 Rot=59,14
   --- Orbital Update [SuperCI(PT)]
   --- Canonicalize Internal Space
   --- Canonicalize External Space
   --- SX_PT (Skipped TA=0 IT=0): ||X|| =      0.000236100 Max(X)(15,11) =      0.000088886 
   --- SFit(Active Orbitals)

MACRO-ITERATION   8: 
   --- Inactive Energy E0 = -1325.67553315 Eh
CI-ITERATION   0: 
 -1337.265300595   0.000000000000 (    0.03)
   CI-PROBLEM SOLVED
   DENSITIES MADE
CI-ITERATION   0: 
 -1337.227706047   0.000000000000 (    0.01)
   CI-PROBLEM SOLVED
   DENSITIES MADE
   E(CAS)= -1337.246503321 Eh DE=   -1.021469e-07
   --- Energy gap subspaces: Ext-Act = 5.312   Act-Int = 0.077
   N(occ)=  1.62765 0.99974 1.00000 1.00000 1.02492 0.34769
   ||g|| =     2.675236e-04 Max(G)=   -1.524055e-04 Rot=15,11
   --- Orbital Update [SuperCI(PT)]
   --- Canonicalize Internal Space
   --- Canonicalize External Space
   --- SX_PT (Skipped TA=0 IT=0): ||X|| =      0.000138649 Max(X)(15,11) =      0.000085838 
   --- SFit(Active Orbitals)

MACRO-ITERATION   9: 
   --- Inactive Energy E0 = -1325.67558737 Eh
CI-ITERATION   0: 
 -1337.265301305   0.000000000000 (    0.08)
   CI-PROBLEM SOLVED
   DENSITIES MADE
CI-ITERATION   0: 
 -1337.227705419   0.000000000000 (    0.04)
   CI-PROBLEM SOLVED
   DENSITIES MADE
   E(CAS)= -1337.246503362 Eh DE=   -4.090180e-08
   --- Energy gap subspaces: Ext-Act = 5.312   Act-Int = 0.077
   N(occ)=  1.62766 0.99975 1.00000 1.00000 1.02492 0.34767
   ||g|| =     2.126005e-04 Max(G)=   -1.467663e-04 Rot=15,11
                     ---- THE CAS-SCF GRADIENT HAS CONVERGED ----
                            --- FINALIZING ORBITALS ---
                    ---- DOING ONE FINAL ITERATION FOR PRINTING ----
   --- Forming Natural Orbitals
   --- Canonicalize Internal Space
   --- Canonicalize External Space

MACRO-ITERATION  10: 
   --- Inactive Energy E0 = -1325.67558737 Eh
   --- All densities will be recomputed
CI-ITERATION   0: 
 -1337.265301305   0.000000000000 (    0.05)
   CI-PROBLEM SOLVED
   DENSITIES MADE
CI-ITERATION   0: 
 -1337.227705419   0.000000000000 (    0.02)
   CI-PROBLEM SOLVED
   DENSITIES MADE
   E(CAS)= -1337.246503362 Eh DE=    1.591616e-11
   --- Energy gap subspaces: Ext-Act = 0.109   Act-Int = 0.076
   N(occ)=  1.62773 1.02509 1.00000 1.00000 0.99975 0.34743
   ||g|| =     2.126005e-04 Max(G)=   -1.467091e-04 Rot=18,11
--------------
CASSCF RESULTS
--------------

Final CASSCF energy       : -1337.246503362 Eh  -36388.3273 eV

----------------
ORBITAL ENERGIES
----------------

  NO   OCC          E(Eh)            E(eV) 
   0   2.0000    -261.368326     -7112.1937 
   1   2.0000     -31.929948      -868.8581 
   2   2.0000     -27.421293      -746.1713 
   3   2.0000     -27.403480      -745.6866 
   4   2.0000     -27.403471      -745.6864 
   5   2.0000     -20.533544      -558.7461 
   6   2.0000      -4.166382      -113.3730 
   7   2.0000      -2.759705       -75.0954 
   8   2.0000      -2.739351       -74.5415 
   9   2.0000      -2.739343       -74.5413 
  10   2.0000      -1.212234       -32.9866 
  11   2.0000      -0.551408       -15.0046 
  12   2.0000      -0.501117       -13.6361 
  13   2.0000      -0.501112       -13.6359 
  14   1.6277      -0.425180       -11.5697 
  15   1.0251      -0.144301        -3.9266 
  16   1.0000      -0.156180        -4.2499 
  17   1.0000      -0.155851        -4.2409 
  18   0.9997      -0.160536        -4.3684 
  19   0.3474       0.075326         2.0497 
  20   0.0000       0.184289         5.0148 
  21   0.0000       0.184291         5.0148 
  22   0.0000       0.190119         5.1734 
  23   0.0000       0.242210         6.5909 
  24   0.0000       0.263121         7.1599 
  25   0.0000       0.265732         7.2309 
  26   0.0000       0.312145         8.4939 
  27   0.0000       0.312147         8.4939 
  28   0.0000       0.402940        10.9646 
  29   0.0000       0.682352        18.5677 
  30   0.0000       0.738579        20.0977 
  31   0.0000       0.738579        20.0978 
  32   0.0000       0.981611        26.7110 
  33   0.0000       1.056424        28.7467 
  34   0.0000       1.074517        29.2391 
  35   0.0000       1.093285        29.7498 
  36   0.0000       1.093295        29.7501 
  37   0.0000       1.172442        31.9038 
  38   0.0000       1.784868        48.5687 
  39   0.0000       1.785063        48.5740 
  40   0.0000       1.804817        49.1116 
  41   0.0000       1.804824        49.1118 
  42   0.0000       1.812186        49.3121 
  43   0.0000       2.116898        57.6037 
  44   0.0000       2.116908        57.6040 
  45   0.0000       2.465218        67.0820 
  46   0.0000       2.867350        78.0246 
  47   0.0000       3.085273        83.9545 
  48   0.0000       3.085273        83.9546 
  49   0.0000       3.341496        90.9267 
  50   0.0000       3.481631        94.7400 
  51   0.0000       3.871421       105.3467 
  52   0.0000       3.871436       105.3471 
  53   0.0000       3.900510       106.1383 
  54   0.0000       3.929601       106.9299 
  55   0.0000       4.217825       114.7728 
  56   0.0000       4.450011       121.0909 
  57   0.0000       4.463852       121.4676 
  58   0.0000       4.463853       121.4676 
  59   0.0000       4.465253       121.5057 
  60   0.0000       4.487963       122.1237 
  61   0.0000       4.487971       122.1239 
  62   0.0000       4.732774       128.7853 
  63   0.0000       5.588070       152.0591 
  64   0.0000       5.588097       152.0599 
  65   0.0000       5.616863       152.8426 
  66   0.0000       5.616863       152.8426 
  67   0.0000       5.773260       157.0984 
  68   0.0000       5.773264       157.0985 
  69   0.0000       6.377083       173.5293 
  70   0.0000       6.777883       184.4356 
  71   0.0000       6.777944       184.4372 
  72   0.0000       6.959284       189.3718 
  73   0.0000       6.959289       189.3719 
  74   0.0000       7.565422       205.8656 
  75   0.0000      44.894642      1221.6453 


---------------------------------------------
CAS-SCF STATES FOR BLOCK  1 MULT= 5 NROOTS= 1
---------------------------------------------

ROOT   0:  E=   -1337.2653013047 Eh
      0.75286 [     0]: 211110
      0.11198 [    30]: 011112
      0.10809 [    15]: 111111
      0.01343 [    26]: 021111
      0.01139 [     5]: 121110


---------------------------------------------
CAS-SCF STATES FOR BLOCK  2 MULT= 3 NROOTS= 1
---------------------------------------------

ROOT   0:  E=   -1337.2277054195 Eh
      0.73262 [    10]: 211110
      0.11317 [   110]: 011112
      0.06594 [    60]: 111111
      0.02310 [    92]: 021111
      0.02087 [    39]: 121110
      0.01431 [    28]: 201111
      0.01026 [     0]: 221100
      0.00942 [    27]: 201120
      0.00398 [    81]: 101112


-----------------------------
SA-CASSCF TRANSITION ENERGIES
------------------------------

LOWEST ROOT (ROOT 0 ,MULT 5) =  -1337.265301305 Eh -36388.839 eV

STATE   ROOT MULT  DE/a.u.    DE/eV    DE/cm**-1
   1:    0    3   0.037596     1.023   8251.3


--------------
DENSITY MATRIX
--------------

                  0          1          2          3          4          5    
      0       1.627726  -0.000000  -0.000000  -0.000000   0.000000   0.000000
      1      -0.000000   1.025093   0.000000   0.000000   0.000000   0.000000
      2      -0.000000   0.000000   1.000001  -0.000000   0.000000  -0.000000
      3      -0.000000   0.000000  -0.000000   0.999999   0.000000  -0.000000
      4       0.000000   0.000000   0.000000   0.000000   0.999750  -0.000000
      5       0.000000   0.000000  -0.000000  -0.000000  -0.000000   0.347431
Trace of the electron density:  6.000000
Extracting Spin-Density from 2-RDM (MULT=5) ... done
Extracting Spin-Density from 2-RDM (MULT=3) ... done

-------------------
SPIN-DENSITY MATRIX
-------------------

                  0          1          2          3          4          5    
      0       0.031029  -0.115376   0.000000  -0.000018  -0.012256   0.392942
      1      -0.115376   0.250596   0.000044  -0.000050  -0.065102  -0.016605
      2       0.000000   0.000044   0.895076   0.007029  -0.000017   0.000009
      3      -0.000018  -0.000050   0.007029   0.894854   0.000016   0.000009
      4      -0.012256  -0.065102  -0.000017   0.000016   0.895469  -0.001010
      5       0.392942  -0.016605   0.000009   0.000009  -0.001010   0.032976
Trace of the spin density:  3.000000

-----------------
ENERGY COMPONENTS
-----------------

One electron energy          :  -1986.093810212 Eh      -54044.3601 eV
Two electron energy          :    580.039691157 Eh       15783.6824 eV
Nuclear repulsion energy     :     68.807615693 Eh        1872.3504 eV
                               ----------------
                                -1337.246503362

Kinetic energy               :   1337.477664769 Eh       36394.6175 eV
Potential energy             :  -2674.724168131 Eh      -72782.9448 eV
Virial ratio                 :     -1.999827166 
                               ----------------
                                -1337.246503362

Core energy                  :  -1325.675587366 Eh   -36073.4667 eV

-------------------
LOCAL SPIN ANALYSIS (Loewdin* projector)
-------------------


(1) A.E. Clark; E.R. Davison J. Chem. Phys. (2001), 115(16), pp 7382-7392 

Number of fragments       = 2
State to be analyzed      = State average densities
State belongs to block    = State average
Multiplicity              = 5
Number of basis functions = 76
Number of atoms           = 2

Active orbitals           = 14-19

   ... Fragment AO indices were mapped
   ... intra-fragment orthogonalization completed
   ... Global Loewdin orthogonalizer constructed
   ... Loewdin orthogonalized occupied orbitals constructed
   ... Projector matrix elements calculated
Fragment 1
                  0          1          2          3          4          5    
      0       0.480826   0.110355   0.000004   0.000023   0.012011  -0.410981
      1       0.110355   0.119954  -0.000000   0.000008   0.007765  -0.105313
      2       0.000004  -0.000000   0.021396   0.020378  -0.000046  -0.000004
      3       0.000023   0.000008   0.020378   0.020935   0.000046  -0.000021
      4       0.012011   0.007765  -0.000046   0.000046   0.042314  -0.011036
      5      -0.410981  -0.105313  -0.000004  -0.000021  -0.011036   0.411657

Fragment 2
                  0          1          2          3          4          5    
      0       0.519174  -0.110355  -0.000004  -0.000023  -0.012011   0.410981
      1      -0.110355   0.880046   0.000000  -0.000008  -0.007765   0.105313
      2      -0.000004   0.000000   0.978604  -0.020378   0.000046   0.000004
      3      -0.000023  -0.000008  -0.020378   0.979065  -0.000046   0.000021
      4      -0.012011  -0.007765   0.000046  -0.000046   0.957686   0.011036
      5       0.410981   0.105313   0.000004   0.000021   0.011036   0.588343



 <SA*SB>        1            2     
----------------------------------
   1    :     0.6764  
   2    :    -0.9343       5.1923  


               <SzA>       Seff(A)
        --------------------------
   1    :    -0.1058      0.4625
   2    :     1.6058      1.8329

-------------------
LOCAL SPIN ANALYSIS (Loewdin* projector)
-------------------

State to be analyzed      = 0
State belongs to block    = 0
Multiplicity              = 5


 <SA*SB>        1            2     
----------------------------------
   1    :     0.6491  
   2    :    -0.9273       7.2054  


               <SzA>       Seff(A)
        --------------------------
   1    :     0.0000      0.4482
   2    :     0.0000      2.2305

-------------------
LOCAL SPIN ANALYSIS (Loewdin* projector)
-------------------

State to be analyzed      = 0
State belongs to block    = 1
Multiplicity              = 3


 <SA*SB>        1            2     
----------------------------------
   1    :     0.7036  
   2    :    -0.9414       3.1792  


               <SzA>       Seff(A)
        --------------------------
   1    :     0.0000      0.4765
   2    :     0.0000      1.3518


----------------------------
LOEWDIN REDUCED ACTIVE MOs  
----------------------------

                     12        13        14        15        16        17   
                  -0.50112  -0.50111  -0.42518  -0.14430  -0.15618  -0.15585
                   2.00000   2.00000   1.62773   1.02509   1.00000   1.00000
                  --------  --------  --------  --------  --------  --------
 0 O  pz              0.0       0.0      46.7       6.3       0.0       0.0
 0 O  px              7.4      80.6       0.0       0.0       1.1       1.1
 0 O  py             80.6       7.4       0.0       0.0       0.7       0.7
 1 Fe s               0.0       0.0       0.4      72.1       0.0       0.0
 1 Fe pz              0.0       0.0       0.5      12.3       0.0       0.0
 1 Fe dz2             0.0       0.0      49.2       7.6       0.0       0.0
 1 Fe dxz             0.7       7.7       0.0       0.3      29.7      29.2
 1 Fe dyz             7.7       0.7       0.0       0.5      18.3      17.7
 1 Fe dx2y2           0.0       0.0       0.0       0.0      49.4      50.5

                     18        19        20        21        22        23   
                  -0.16054   0.07533   0.18429   0.18429   0.19012   0.24221
                   0.99975   0.34743   0.00000   0.00000   0.00000   0.00000
                  --------  --------  --------  --------  --------  --------
 0 O  s               0.0       0.1       0.0       0.0       0.7       5.7
 0 O  pz              0.1      43.7       0.0       0.0       2.3       1.7
 1 Fe s               0.7       5.9       0.0       0.0      59.6      23.0
 1 Fe pz              0.1       8.4       0.0       0.0      22.2       2.6
 1 Fe px              0.4       0.0      18.1      54.3       0.0       0.0
 1 Fe py              0.6       0.0      54.3      18.1       0.0       0.0
 1 Fe dz2             0.0      41.3       0.0       0.0      15.0      66.9
 1 Fe dxz            35.7       0.0       6.0      18.1       0.0       0.0
 1 Fe dyz            58.3       0.0      18.1       6.0       0.0       0.0


-------------------------------------------------------------
 Forming the transition density       ... done in 0.025000 sec
-------------------------------------------------------------



==========================================
CASSCF UV, CD spectra and dipole moments
==========================================
-------------------
ABSORPTION SPECTRUM
-------------------

Center of mass           = (  0.0000,  0.0000,  0.0381)
Nuclear contribution to the dipole moment =     0.000000,    0.000000,   -1.296950 au

Calculating the Dipole integrals                  ... done
Transforming integrals                            ... done
Calculating the Linear Momentum integrals         ... done
Transforming integrals                            ... done
Calculating the Angular Momentum integrals        ... done
Transforming integrals                            ... done

------------------------------------------------------------------------------
                                 DIPOLE MOMENTS
------------------------------------------------------------------------------
  Root  Block           TX        TY        TZ           |T|
                      (Debye)   (Debye)   (Debye)      (Debye)
------------------------------------------------------------------------------
    0    0            0.00928  -0.01182   3.17682      3.17685

==============================
CASSCF RELATIVISTIC PROPERTIES
==============================

Checking configurations                         ... done
Determining NSOMO,NDOMO and NVMO                ... done
Building up the tree                            ... done
Building N-1 electron tree                      ... done
Building RI configuration space                 ... done
Analyzing the RI configuration space            ... done
Determining NDOMO,NSOMO,NVMO for RI space       ... done
Removing invalid configurations from RI space   ... done
Determination of address arrays                 ... Looking for max. no of open shells              ... done
Setting up coupling coefficient container       ... Memory for address arrays  		      ... done
Make address arrays			      ... done
Memory for buffers 			      ... done
Setting up spin-function prototypes	      ... 4 6 8 4 6 8 done
Number of open shells			    ...  4
domo->virtual excitations			  ... done
domo->somo excitations 			  ... done
somo->virtual excitations			  ... done
somo->somo excitations 			  ... done
Number of open shells			    ...  6
done
done
done
somo->somo excitations 			  ... done
Coupling container construction done
done
Now recording sub-block dimensions              ... Multiplicity                          ...       5
# of electrons                        ...       6
# of orbitals                         ...       6
# of roots requested                  ...       1
Configuration space:
# of configurations                   ...      31
# of CSF's                            ...      35
# of rejected configurations          ...       0
Min. # of SOMOs                       ...       4
Max. # of SOMOs                       ...       6
Max. # of DOMOs                       ...       1
Max. # of VMOs                        ...       1
(N-1) Electron Configuration space:
# of configurations                   ...      66
CSF dimensions:
      4 SOMOs give     1 CSFs
      6 SOMOs give     5 CSFs

Checking configurations                         ... done
Determining NSOMO,NDOMO and NVMO                ... done
Building up the tree                            ... done
Building N-1 electron tree                      ... done
Building RI configuration space                 ... done
Analyzing the RI configuration space            ... done
Determining NDOMO,NSOMO,NVMO for RI space       ... done
Removing invalid configurations from RI space   ... done
Determination of address arrays                 ... Looking for max. no of open shells              ... done
Setting up coupling coefficient container       ... Memory for address arrays  		      ... done
Make address arrays			      ... done
Memory for buffers 			      ... done
Setting up spin-function prototypes	      ... 4 6 8 2 4 6 8 done
Number of open shells			    ...  2
domo->virtual excitations			  ... done
domo->somo excitations 			  ... done
somo->virtual excitations			  ... done
somo->somo excitations 			  ... done
Number of open shells			    ...  4
domo->virtual excitations			  ... done
domo->somo excitations 			  ... done
somo->virtual excitations			  ... done
somo->somo excitations 			  ... done
Number of open shells			    ...  6
done
done
done
somo->somo excitations 			  ... done
Coupling container construction done
Memory for address arrays  		      ... done
Make address arrays			      ... done
Memory for buffers 			      ... done
Setting up spin-function prototypes	      ... 2 4 6 8 2 4 6 8 done
Number of open shells			    ...  2
domo->virtual excitations			  ... done
domo->somo excitations 			  ... done
somo->virtual excitations			  ... done
somo->somo excitations 			  ... done
Number of open shells			    ...  4
domo->virtual excitations			  ... done
domo->somo excitations 			  ... done
somo->virtual excitations			  ... done
somo->somo excitations 			  ... done
Number of open shells			    ...  6
done
done
done
somo->somo excitations 			  ... done
Coupling container construction done
done
Now recording sub-block dimensions              ... Multiplicity                          ...       3
# of electrons                        ...       6
# of orbitals                         ...       6
# of roots requested                  ...       1
Configuration space:
# of configurations                   ...     121
# of CSF's                            ...     189
# of rejected configurations          ...       0
Min. # of SOMOs                       ...       2
Max. # of SOMOs                       ...       6
Max. # of DOMOs                       ...       2
Max. # of VMOs                        ...       2
(N-1) Electron Configuration space:
# of configurations                   ...     126
CSF dimensions:
      2 SOMOs give     1 CSFs
      4 SOMOs give     3 CSFs
      6 SOMOs give     9 CSFs

done
Order    0    0    0    0    0    1    1    1 
MS *2    4    2    0   -2   -4    2    0   -2 
Mult     5    5    5    5    5    3    3    3 
irrep    0    0    0    0    0    0    0    0 

Calculating SOCInts
Loading the effective charges         ... done
Entering the SOC calc. section        ... 
------------------------------------------------------------------------------
                         ORCA SPIN-ORBIT COUPLING CALCULATION
------------------------------------------------------------------------------

GBW file                                    ... feo_5_casscf_6_6.gbw
Input density                               ... feo_5_casscf_6_6.scfp
Output integrals                            ... feo_5_casscf_6_6
Operator type                               ... Mean-field/Effective potential
   One-Electron Terms                       ... 1
   Coulomb Contribution                     ... 4
   Exchange Contribution                    ... 3
   Correlation Contribution                 ... 0
   Maximum number of centers                ... 4
SHARK 1-electron  MaxCenter=4               ... done (  0.0 sec)
Evaluating Coulomb term analytically        ... 
SHARK 2-electron DoJ,X=1,1 MaxCenter=4      ... done (  2.3 sec)
   .... returned from the SOC program

----------------------------------
QDPT WITH CASSCF DIAGONAL ENERGIES
----------------------------------

*************************************
Doing QDPT with ONLY SOC!
*************************************

------------------------------------
NONZERO SOC MATRIX ELEMENTS (cm**-1)
------------------------------------

           Bra                       Ket       
<Block Root  S    Ms  | HSOC |  Block Root  S    Ms>    =  Real-part     Imaginary part
--------------------------------------------------------------------------------------
   1    0  1.0  1.0              0     0  2.0  2.0           -0.221              0.287
   1    0  1.0  1.0              0     0  2.0  0.0           -0.090             -0.117
   1    0  1.0  0.0              0     0  2.0  1.0           -0.156              0.203
   1    0  1.0  0.0              0     0  2.0  0.0           -0.000              0.000
   1    0  1.0  0.0              0     0  2.0 -1.0           -0.156             -0.203
   1    0  1.0 -1.0              0     0  2.0  0.0           -0.090              0.117
   1    0  1.0 -1.0              0     0  2.0 -2.0           -0.221             -0.287

Note: In the following the full <I|HBO+SOC|J> are printed in the CI Basis.     
      I,J are compound indices for |Block/Mult, Ms, Root>, where the states    
      are ordered first by MultBlock, then Ms and finally Root.                
-----------------
SOC MATRIX (A.U.)
-----------------

Real part:  
                  0          1          2          3          4          5    
      0    -1337.265301   0.000000   0.000000   0.000000   0.000000  -0.000001
      1       0.000000-1337.265301   0.000000   0.000000   0.000000  -0.000000
      2       0.000000   0.000000-1337.265301   0.000000   0.000000  -0.000000
      3       0.000000   0.000000   0.000000-1337.265301   0.000000   0.000000
      4       0.000000   0.000000   0.000000   0.000000-1337.265301   0.000000
      5      -0.000001  -0.000000  -0.000000   0.000000   0.000000-1337.227705
      6       0.000000  -0.000001  -0.000000  -0.000001   0.000000   0.000000
      7       0.000000   0.000000  -0.000000  -0.000000  -0.000001   0.000000
                  6          7    
      0       0.000000   0.000000
      1      -0.000001   0.000000
      2      -0.000000  -0.000000
      3      -0.000001  -0.000000
      4       0.000000  -0.000001
      5       0.000000   0.000000
      6    -1337.227705   0.000000
      7       0.000000-1337.227705

Image part: 
                  0          1          2          3          4          5    
      0       0.000000   0.000000   0.000000   0.000000   0.000000  -0.000001
      1      -0.000000   0.000000   0.000000   0.000000   0.000000  -0.000000
      2       0.000000  -0.000000   0.000000   0.000000   0.000000   0.000001
      3       0.000000   0.000000  -0.000000  -0.000000   0.000000   0.000000
      4       0.000000   0.000000   0.000000  -0.000000  -0.000000   0.000000
      5       0.000001   0.000000  -0.000001   0.000000   0.000000   0.000000
      6       0.000000   0.000001   0.000000  -0.000001   0.000000  -0.000000
      7       0.000000   0.000000   0.000001   0.000000  -0.000001   0.000000
                  6          7    
      0       0.000000   0.000000
      1      -0.000001   0.000000
      2      -0.000000  -0.000001
      3       0.000001  -0.000000
      4       0.000000   0.000001
      5       0.000000   0.000000
      6       0.000000   0.000000
      7      -0.000000  -0.000000


Lowest eigenvalue of the SOC matrix:   -1337.26530130 Eh
Energy stabilization:    -0.00002 cm-1
Eigenvalues:     cm-1         eV      Boltzmann populations at T =  300.000 K
   0:            0.00        0.0000       2.00e-01
   1:            0.00        0.0000       2.00e-01
   2:            0.00        0.0000       2.00e-01
   3:            0.00        0.0000       2.00e-01
   4:            0.00        0.0000       2.00e-01
   5:         8251.34        1.0230       1.30e-18
   6:         8251.34        1.0230       1.30e-18
   7:         8251.34        1.0230       1.30e-18

The threshold for printing is 0.0100
Eigenvectors:
                         Weight      Real          Image    : Block Root    Spin   Ms
 STATE   0:       0.0000
                         0.374951    -0.564299     0.237734 :     0    0    2    2
                         0.250031     0.304834     0.396367 :     0    0    2    0
                         0.375019     0.373492    -0.485306 :     0    0    2   -2

 STATE   1:       0.0000
                         0.499455    -0.651175     0.274638 :     0    0    2    2
                         0.500542    -0.431905     0.560358 :     0    0    2   -2

 STATE   2:       0.0000
                         0.494870    -0.405333     0.574956 :     0    0    2    1
                         0.505130     0.666440     0.246956 :     0    0    2   -1

 STATE   3:       0.0000
                         0.505130     0.391217    -0.593363 :     0    0    2    1
                         0.494870     0.666933     0.223765 :     0    0    2   -1

 STATE   4:       0.0000
                         0.125594    -0.346013    -0.076608 :     0    0    2    2
                         0.749967    -0.031803    -0.865422 :     0    0    2    0
                         0.124439     0.337649    -0.102138 :     0    0    2   -2

 STATE   5:    8251.3431
                         1.000000     0.968802     0.247835 :     1    0    1    0

 STATE   6:    8251.3431
                         0.496420    -0.180181     0.681142 :     1    0    1    1
                         0.503580    -0.709634     0.000000 :     1    0    1   -1

 STATE   7:    8251.3431
                         0.503580    -0.181476     0.686037 :     1    0    1    1
                         0.496420     0.704571    -0.000000 :     1    0    1   -1


Center of nuclear charge           = (  0.0000,  0.0000,  0.0000)
Note: In the following <I|S|J> and <I|L|J> matrices are printed in the CI Basis.
      I,J are compound indices for |Block/Mult, Ms, Root>, where the states     
      are ordered first by MultBlock, then Ms and finally Root.                 

---------------------
SX MATRIX IN CI BASIS
---------------------

Real part:
                  0          1          2          3          4          5    
      0       0.000000   2.000000   0.000000   0.000000   0.000000   0.000000
      1       2.000000   0.000000   2.449490   0.000000   0.000000   0.000000
      2       0.000000   2.449490   0.000000   2.449490   0.000000   0.000000
      3       0.000000   0.000000   2.449490   0.000000   2.000000   0.000000
      4       0.000000   0.000000   0.000000   2.000000   0.000000   0.000000
      5       0.000000   0.000000   0.000000   0.000000   0.000000   0.000000
      6       0.000000   0.000000   0.000000   0.000000   0.000000   1.414214
      7       0.000000   0.000000   0.000000   0.000000   0.000000   0.000000
                  6          7    
      0       0.000000   0.000000
      1       0.000000   0.000000
      2       0.000000   0.000000
      3       0.000000   0.000000
      4       0.000000   0.000000
      5       1.414214   0.000000
      6       0.000000   1.414214
      7       1.414214   0.000000


---------------------
SY MATRIX IN CI BASIS
---------------------

Image part:
                  0          1          2          3          4          5    
      0       0.000000  -2.000000   0.000000   0.000000   0.000000   0.000000
      1       2.000000   0.000000  -2.449490   0.000000   0.000000   0.000000
      2       0.000000   2.449490   0.000000  -2.449490   0.000000   0.000000
      3       0.000000   0.000000   2.449490   0.000000  -2.000000   0.000000
      4       0.000000   0.000000   0.000000   2.000000   0.000000   0.000000
      5       0.000000   0.000000   0.000000   0.000000   0.000000   0.000000
      6       0.000000   0.000000   0.000000   0.000000   0.000000   1.414214
      7       0.000000   0.000000   0.000000   0.000000   0.000000   0.000000
                  6          7    
      0       0.000000   0.000000
      1       0.000000   0.000000
      2       0.000000   0.000000
      3       0.000000   0.000000
      4       0.000000   0.000000
      5      -1.414214   0.000000
      6       0.000000  -1.414214
      7       1.414214   0.000000


---------------------
SZ MATRIX IN CI BASIS
---------------------

Real part:
                  0          1          2          3          4          5    
      0       4.000000   0.000000   0.000000   0.000000   0.000000   0.000000
      1       0.000000   2.000000   0.000000   0.000000   0.000000   0.000000
      2       0.000000   0.000000   0.000000   0.000000   0.000000   0.000000
      3       0.000000   0.000000   0.000000  -2.000000   0.000000   0.000000
      4       0.000000   0.000000   0.000000   0.000000  -4.000000   0.000000
      5       0.000000   0.000000   0.000000   0.000000   0.000000   2.000000
      6       0.000000   0.000000   0.000000   0.000000   0.000000   0.000000
      7       0.000000   0.000000   0.000000   0.000000   0.000000   0.000000
                  6          7    
      0       0.000000   0.000000
      1       0.000000   0.000000
      2       0.000000   0.000000
      3       0.000000   0.000000
      4       0.000000   0.000000
      5       0.000000   0.000000
      6       0.000000   0.000000
      7       0.000000  -2.000000


---------------------
LX MATRIX IN CI BASIS
---------------------

Image part:
                  0          1          2          3          4          5    
      0       0.000000   0.000000   0.000000   0.000000   0.000000   0.000000
      1       0.000000   0.000000   0.000000   0.000000   0.000000   0.000000
      2       0.000000   0.000000   0.000000   0.000000   0.000000   0.000000
      3       0.000000   0.000000   0.000000   0.000000   0.000000   0.000000
      4       0.000000   0.000000   0.000000   0.000000   0.000000   0.000000
      5       0.000000   0.000000   0.000000   0.000000   0.000000   0.000000
      6       0.000000   0.000000   0.000000   0.000000   0.000000   0.000000
      7       0.000000   0.000000   0.000000   0.000000   0.000000   0.000000
                  6          7    
      0       0.000000   0.000000
      1       0.000000   0.000000
      2       0.000000   0.000000
      3       0.000000   0.000000
      4       0.000000   0.000000
      5       0.000000   0.000000
      6       0.000000   0.000000
      7       0.000000   0.000000


---------------------
LY MATRIX IN CI BASIS
---------------------

Image part:
                  0          1          2          3          4          5    
      0       0.000000   0.000000   0.000000   0.000000   0.000000   0.000000
      1       0.000000   0.000000   0.000000   0.000000   0.000000   0.000000
      2       0.000000   0.000000   0.000000   0.000000   0.000000   0.000000
      3       0.000000   0.000000   0.000000   0.000000   0.000000   0.000000
      4       0.000000   0.000000   0.000000   0.000000   0.000000   0.000000
      5       0.000000   0.000000   0.000000   0.000000   0.000000   0.000000
      6       0.000000   0.000000   0.000000   0.000000   0.000000   0.000000
      7       0.000000   0.000000   0.000000   0.000000   0.000000   0.000000
                  6          7    
      0       0.000000   0.000000
      1       0.000000   0.000000
      2       0.000000   0.000000
      3       0.000000   0.000000
      4       0.000000   0.000000
      5       0.000000   0.000000
      6       0.000000   0.000000
      7       0.000000   0.000000


---------------------
LZ MATRIX IN CI BASIS
---------------------

Image part:
                  0          1          2          3          4          5    
      0       0.000000   0.000000   0.000000   0.000000   0.000000   0.000000
      1       0.000000   0.000000   0.000000   0.000000   0.000000   0.000000
      2       0.000000   0.000000   0.000000   0.000000   0.000000   0.000000
      3       0.000000   0.000000   0.000000   0.000000   0.000000   0.000000
      4       0.000000   0.000000   0.000000   0.000000   0.000000   0.000000
      5       0.000000   0.000000   0.000000   0.000000   0.000000   0.000000
      6       0.000000   0.000000   0.000000   0.000000   0.000000   0.000000
      7       0.000000   0.000000   0.000000   0.000000   0.000000   0.000000
                  6          7    
      0       0.000000   0.000000
      1       0.000000   0.000000
      2       0.000000   0.000000
      3       0.000000   0.000000
      4       0.000000   0.000000
      5       0.000000   0.000000
      6       0.000000   0.000000
      7       0.000000   0.000000


--------------------------------------------
           ZERO-FIELD SPLITTING
(2ND ORDER SPIN-ORBIT COUPLING CONTRIBUTION)
--------------------------------------------

Second order D-tensor: component '0'
    0.000000     0.000000     0.000000 
    0.000000     0.000000     0.000000 
    0.000000     0.000000     0.000000 

Second order D-tensor: component '-'
    0.000003     0.000003    -0.000000 
    0.000003     0.000002    -0.000000 
   -0.000000    -0.000000     0.000000 

Second order D-tensor: component '+'
    0.000000     0.000000     0.000000 
    0.000000     0.000000     0.000000 
    0.000000     0.000000     0.000000 

Raw matrix (cm-1):
    0.000003     0.000003    -0.000000 
    0.000003     0.000002    -0.000000 
   -0.000000    -0.000000     0.000000 

Eigenvalues (cm-1):
    0.000000     0.000000     0.000005 

Eigenvalues (traceless) (cm-1):
   -0.000002    -0.000002     0.000004 

Eigenvectors:
   -0.000127    -0.610028    -0.792380 
   -0.000240     0.792380    -0.610028 
   -1.000000    -0.000113     0.000247 

Euler angles w.r.t. molecular frame (degrees):
     -0.0065      89.9859     -37.5915

D   =    0.000005  cm-1
E/D =    0.000000

Individual contributions to D-tensor:
Block  Mult  Root          D          E
    0     5     0      0.000      0.000
    1     3     0      0.000     -0.000
Norm of projected state 0 of the effective Hamiltonian: 1.000000
Norm of projected state 1 of the effective Hamiltonian: 1.000000
Norm of projected state 2 of the effective Hamiltonian: 1.000000
Norm of projected state 3 of the effective Hamiltonian: 1.000000
Norm of projected state 4 of the effective Hamiltonian: 1.000000
WARNING: If the projections have norms significantly smaller than 1, the effective Hamiltonian might not be very meaningful!

--------------------------------------------------------
                  ZERO-FIELD SPLITTING
EFFECTIVE HAMILTONIAN SOC CONTRIBUTION
--------------------------------------------------------

Effective Hamiltonian from projected relativistic states and relativistic energies:

Real part:  
                  0          1          2          3          4    
      0       0.000005  -0.000000   0.000002  -0.000000  -0.000000
      1      -0.000000   0.000013  -0.000000   0.000002  -0.000000
      2       0.000002  -0.000000   0.000016   0.000000   0.000002
      3      -0.000000   0.000002   0.000000   0.000013   0.000000
      4      -0.000000  -0.000000   0.000002   0.000000   0.000005

Image part: 
                  0          1          2          3          4    
      0      -0.000000   0.000000  -0.000006   0.000000  -0.000000
      1      -0.000000   0.000000   0.000000  -0.000008  -0.000000
      2       0.000006  -0.000000  -0.000000  -0.000000  -0.000006
      3      -0.000000   0.000008   0.000000  -0.000000  -0.000000
      4       0.000000   0.000000   0.000006   0.000000   0.000000
Raw matrix (cm-1):
    0.000003     0.000003    -0.000000 
    0.000003     0.000002    -0.000000 
   -0.000000    -0.000000    -0.000000 

Eigenvalues (cm-1):
   -0.000000    -0.000000     0.000005 

Eigenvalues (traceless) (cm-1):
   -0.000002    -0.000002     0.000004 

Eigenvectors:
   -0.001517     0.610434    -0.792066 
    0.002353    -0.792062    -0.610436 
    0.999996     0.002790     0.000234 

Euler angles w.r.t. molecular frame (degrees):
      0.1598      90.0134     142.3790

D   =    0.000005  cm-1
E/D =    0.000000

Individual contributions to D-tensor:
Block  Mult  Root          D          E
    1     3     0      0.000      0.000

  *** Storing geometry in DTensor axis frame as feo_5_casscf_6_6.CAS_DTensor_HEFF_rotated.xyz  ***

--------------------------------
SOC CORRECTED EXCITATION SPECTRA
--------------------------------

Dim(SO)                  = 8
Number of initial states = -1
Center of mass           = (  0.0000,  0.0000,  0.0381)
Nuclear contribution to the dipole moment =     0.000000,    0.000000,   -1.296950 au

Calculating the dipole integrals          ... done

------------------------------------------------------------------------------------------
                    SOC CORRECTED ABSORPTION SPECTRUM
------------------------------------------------------------------------------------------
  States   Energy   Wavelength   fosc          T2       |TX|       |TY|      |TZ| 
           (cm-1)     (nm)                   (D**2)      (D)        (D)       (D) 
------------------------------------------------------------------------------------------
 0  1       0.0   1908473751390.0   0.000000000   0.00000   0.00000   0.00000   0.00000
 0  2       0.0   1908473751390.0   0.000000000   0.00000   0.00000   0.00000   0.00000
 0  3       0.0   474857213023.6   0.000000000   0.00000   0.00000   0.00000   0.00000
 0  4       0.0   471505279755.2   0.000000000   0.00000   0.00000   0.00000   0.00000
 0  5    8251.3   1211.9   0.000000000   0.00000   0.00000   0.00000   0.00000
 0  6    8251.3   1211.9   0.000000000   0.00000   0.00000   0.00000   0.00000
 0  7    8251.3   1211.9   0.000000000   0.00000   0.00000   0.00000   0.00000
 1  2       0.0      0.0   0.000000000   0.00000   0.00000   0.00000   0.00000
 1  3       0.0   632144302510.9   0.000000000   0.00000   0.00000   0.00000   0.00000
 1  4       0.0   626217949674.8   0.000000000   0.00000   0.00000   0.00000   0.00000
 1  5    8251.3   1211.9   0.000000000   0.00000   0.00000   0.00000   0.00000
 1  6    8251.3   1211.9   0.000000000   0.00000   0.00000   0.00000   0.00000
 1  7    8251.3   1211.9   0.000000000   0.00000   0.00000   0.00000   0.00000
 2  3       0.0   632144302510.9   0.000000000   0.00000   0.00000   0.00000   0.00000
 2  4       0.0   626217949674.8   0.000000000   0.00000   0.00000   0.00000   0.00000
 2  5    8251.3   1211.9   0.000000000   0.00000   0.00000   0.00000   0.00000
 2  6    8251.3   1211.9   0.000000000   0.00000   0.00000   0.00000   0.00000
 2  7    8251.3   1211.9   0.000000000   0.00000   0.00000   0.00000   0.00000
 3  4       0.0      0.0   0.000000000   0.00000   0.00000   0.00000   0.00000
 3  5    8251.3   1211.9   0.000000000   0.00000   0.00000   0.00000   0.00000
 3  6    8251.3   1211.9   0.000000000   0.00000   0.00000   0.00000   0.00000
 3  7    8251.3   1211.9   0.000000000   0.00000   0.00000   0.00000   0.00000
 4  5    8251.3   1211.9   0.000000000   0.00000   0.00000   0.00000   0.00000
 4  6    8251.3   1211.9   0.000000000   0.00000   0.00000   0.00000   0.00000
 4  7    8251.3   1211.9   0.000000000   0.00000   0.00000   0.00000   0.00000

------------------------------------------------------------------------------
                           SOC CORRECTED DIPOLE MOMENTS
------------------------------------------------------------------------------
      TX        TY        TZ           |T|
   (Debye)   (Debye)   (Debye)      (Debye)
------------------------------------------------------------------------------
   0.00000   0.00000  -3.29659      3.29659

--------------
CASSCF TIMINGS
--------------

Total time                       ...       29.0 sec
Sum of individual times          ...       29.5 sec (101.9%)

Calculation of AO operators
   F(Core) operator              ...        2.4 sec (  8.2%)
   G(Act) operator               ...        2.0 sec (  6.7%)
   J(AO) operators               ...        0.0 sec (  0.0%)
Calculation of MO transformed quantities
   J(MO) operators               ...        6.0 sec ( 20.6%)
   (pq|rs) integrals             ...        0.0 sec (  0.0%)
   AO->MO one electron integrals ...        0.0 sec (  0.0%)
Configuration interaction steps
   CI-setup phase                ...        0.0 sec (  0.0%)
   CI-solution phase             ...       12.8 sec ( 44.3%)
   Generation of densities       ...        0.2 sec (  0.6%)
Orbital improvement steps
   Orbital gradient              ...        0.2 sec (  0.7%)
   O(1) converger                ...        0.5 sec (  1.8%)
Properties                       ...        2.8 sec (  9.7%)
   SOC integral calculation      ...        2.6 sec (  9.1%)
   SSC RMEs (incl. integrals)    ...        0.0 sec (  0.0%)
   SOC RMEs                      ...        0.0 sec (  0.1%)

Maximum memory used throughout the entire CASSCF-calculation: 82.6 MB

-------------------------   --------------------
FINAL SINGLE POINT ENERGY     -1337.246503362108
-------------------------   --------------------


                            ***************************************
                            *     ORCA property calculations      *
                            ***************************************

                                    ---------------------
                                    Active property flags
                                    ---------------------
   (+) Dipole Moment


------------------------------------------------------------------------------
                       ORCA ELECTRIC PROPERTIES CALCULATION
------------------------------------------------------------------------------

Dipole Moment Calculation                       ... on
Quadrupole Moment Calculation                   ... off
Polarizability Calculation                      ... off
GBWName                                         ... feo_5_casscf_6_6.gbw
Electron density                                ... feo_5_casscf_6_6.scfp
The origin for moment calculation is the CENTER OF MASS  = ( 0.000000,  0.000000  0.038146)

-------------
DIPOLE MOMENT
-------------
                                X             Y             Z
Electronic contribution:      0.00278      -0.00354       2.50177
Nuclear contribution   :      0.00000       0.00000      -1.29695
                        -----------------------------------------
Total Dipole Moment    :      0.00278      -0.00354       1.20482
                        -----------------------------------------
Magnitude (a.u.)       :      1.20483
Magnitude (Debye)      :      3.06243



--------------------
Rotational spectrum 
--------------------
 
Rotational constants in cm-1:     0.000000     0.529719     0.529719 
Rotational constants in MHz :     0.000000 15880.581558 15880.581558 

 Dipole components along the rotational axes: 
x,y,z [a.u.] :     1.204821    -0.003544     0.002781 
x,y,z [Debye]:     3.062412    -0.009009     0.007070 

 

Timings for individual modules:

Sum of individual times         ...       39.931 sec (=   0.666 min)
GTO integral calculation        ...        0.675 sec (=   0.011 min)   1.7 %
SCF iterations                  ...        1.757 sec (=   0.029 min)   4.4 %
CASSCF iterations               ...       37.499 sec (=   0.625 min)  93.9 %
                             ****ORCA TERMINATED NORMALLY****
TOTAL RUN TIME: 0 days 0 hours 0 minutes 40 seconds 254 msec
